<?xml version="1.0" encoding="UTF-8"?>
<VTKFile type="UnstructuredGrid" version="0.1" byte_order="LittleEndian">
<UnstructuredGrid>
<Piece NumberOfPoints="6250" NumberOfCells="6250">
<PointData>
<DataArray type="Float64" Name="Displacement_field,_X-component" Format="ascii">
-3.5642402878179E-6
-1.1491219142927958E-5
-1.9344027209888737E-5
-2.7122664488700225E-5
-3.482713097936242E-5
-4.2457426681875315E-5
-5.001355159623894E-5
-5.749550572245325E-5
-6.490328906051828E-5
-7.223690161043401E-5
-7.949634337220046E-5
-8.668161434581762E-5
-9.379271453128548E-5
-1.0082964392860408E-4
-1.0779240253777335E-4
-1.1468099035879331E-4
-1.2150220488157513E-4
-1.2831926091368207E-4
-1.3504901864087732E-4
-1.4172875990641103E-4
-1.4835848471028316E-4
-1.5493819305249367E-4
-1.6146788493304263E-4
-1.6794756035193008E-4
-1.7437721930915593E-4
-1.8075686180472016E-4
-1.8708648783862287E-4
-1.9336609741086398E-4
-1.9959569052144352E-4
-2.0577526717036146E-4
-2.1190482735761786E-4
-2.1798437108321267E-4
-2.2401389834714592E-4
-2.299738831190867E-4
-2.358228939714823E-4
-2.4161295028569702E-4
-2.4735581363918906E-4
-2.530514840319583E-4
-2.586999614640048E-4
-2.643012459353287E-4
-2.6985533744592976E-4
-2.7536223599580804E-4
-2.808219415849636E-4
-2.862344542133964E-4
-2.915997738811065E-4
-2.9691790058809396E-4
-3.0218883433435866E-4
-3.0741257511990056E-4
-3.1258912294471967E-4
-3.1771847780881615E-4
-3.2276850324242914E-4
-3.2772157155940235E-4
-3.3263117496110816E-4
-3.374973134475466E-4
-3.4231998701871757E-4
-3.4709919567462133E-4
-3.5183493941525753E-4
-3.565272182406265E-4
-3.6117603215072793E-4
-3.657813811455619E-4
-3.7034326522512867E-4
-3.74861684389428E-4
-3.7933663863846E-4
-3.8376812797222444E-4
-3.8815615239072175E-4
-3.925007118939515E-4
-3.9679620537723777E-4
-4.0100622255731934E-4
-4.051471941490995E-4
-4.092484742078028E-4
-4.1331006273342936E-4
-4.173319597259788E-4
-4.213141651854516E-4
-4.252566791118474E-4
-4.2915950150516636E-4
-4.330226323654084E-4
-4.368460716925735E-4
-4.4062981948666196E-4
-4.4437387574767335E-4
-4.4807824047560793E-4
-4.5174291367046555E-4
-4.5536789533224636E-4
-4.589531854609504E-4
-4.624875672018256E-4
-4.65935071898606E-4
-4.693365095531826E-4
-4.7270203479961005E-4
-4.7603164763788855E-4
-4.7932534806801794E-4
-4.825831360899984E-4
-4.8580501170383E-4
-4.889909749095125E-4
-4.92141025707046E-4
-4.952551640964305E-4
-4.983333900776659E-4
-5.013757036507523E-4
-5.043821048156898E-4
-5.073525935724783E-4
-5.102871699211177E-4
-5.131858338616082E-4
-5.160278183411166E-4
-5.187944744560484E-4
-5.215289982442166E-4
-5.242313897056212E-4
-5.269016488402627E-4
-5.295397756481404E-4
-5.321457701292546E-4
-5.347196322836055E-4
-5.372613621111928E-4
-5.397709596120168E-4
-5.42248424786077E-4
-5.44693757633374E-4
-5.471069581539072E-4
-5.494880263476772E-4
-5.518369622146836E-4
-5.541537657549265E-4
-5.564350987266151E-4
-5.586556531468668E-4
-5.608242450963801E-4
-5.629644849631911E-4
-5.650763727473E-4
-5.671599084487065E-4
-5.692150920674107E-4
-5.712419236034127E-4
-5.732404030567125E-4
-5.7521053042731E-4
-5.771523057152052E-4
-5.79065728920398E-4
-5.809508000428886E-4
-5.828075190826769E-4
-5.846358860397628E-4
-5.864359009141466E-4
-5.882075637058282E-4
-5.899454721707033E-4
-5.916211108687913E-4
-5.932642698603377E-4
-5.948828570690788E-4
-5.964768724950141E-4
-5.980463161381444E-4
-5.995911879984691E-4
-6.011114880759886E-4
-6.026072163707026E-4
-6.040783728826112E-4
-6.055249576117143E-4
-6.069469705580121E-4
-6.083444117215046E-4
-6.097172811021917E-4
-6.110655787000732E-4
-6.123893045151495E-4
-6.136884585474203E-4
-6.149529384980594E-4
-6.16164087379755E-4
-6.173544449149066E-4
-6.185240111035146E-4
-6.196727859455788E-4
-6.208007694410994E-4
-6.219079615900763E-4
-6.229943623925095E-4
-6.240599718483992E-4
-6.25104789957745E-4
-6.261288167205471E-4
-6.271320521368057E-4
-6.281144962065205E-4
-6.290761489296917E-4
-6.300170103063192E-4
-6.309370803364029E-4
-6.318352731582876E-4
-6.326972956551623E-4
-6.335244923505446E-4
-6.343346783529829E-4
-6.351278536624775E-4
-6.359040182790282E-4
-6.366631722026352E-4
-6.37405315433298E-4
-6.381304479710174E-4
-6.388385698157928E-4
-6.395296809676244E-4
-6.402037814265119E-4
-6.408608711924559E-4
-6.415009502654559E-4
-6.421240186455122E-4
-6.427300763326245E-4
-6.433191233267933E-4
-6.438915928740714E-4
-6.444263509007795E-4
-6.449422271014154E-4
-6.454448747568376E-4
-6.459342938670458E-4
-6.464104844320401E-4
-6.468734464518206E-4
-6.473231799263872E-4
-6.477596848557396E-4
-6.481829612398786E-4
-6.485930090788036E-4
-6.489898283725146E-4
-6.493734191210117E-4
-6.497437813242951E-4
-6.501009149823644E-4
-6.504448200952198E-4
-6.507754966628615E-4
-6.510935693933625E-4
-6.513801848121483E-4
-6.516573585299115E-4
-6.519250905466514E-4
-6.521833808623682E-4
-6.524322294770621E-4
-6.526716363907327E-4
-6.529016016033802E-4
-6.531221251150047E-4
-6.533332069256063E-4
-6.535348470351843E-4
-6.537270454437395E-4
-6.539098021512717E-4
-6.540831171577807E-4
-6.542469904632666E-4
-6.544014220677295E-4
-6.545477651751698E-4
-6.546822668937975E-4
-6.547989638193509E-4
-6.54910010964648E-4
-6.550154083296887E-4
-6.551151559144736E-4
-6.55209253719002E-4
-6.552977017432744E-4
-6.553804999872904E-4
-6.554576484510505E-4
-6.555291471345543E-4
-6.555949960378018E-4
-6.556551951607934E-4
-6.557097445035285E-4
-6.557586440660074E-4
-6.558018938482304E-4
-6.55839493850197E-4
-6.558793702811146E-4
-6.559026833775402E-4
-6.55922860718707E-4
-6.559413016225554E-4
-6.559580060890854E-4
-6.559729741182973E-4
-6.559862057101906E-4
-6.559977008647659E-4
-6.560074595820226E-4
-6.560154818619612E-4
-6.560217677045812E-4
-6.560263171098831E-4
-6.560291300778667E-4
-6.560302066085319E-4
-6.560295467018787E-4
-6.560271503579073E-4
-6.560230175766174E-4
-3.1940806802727326E-6
-9.800875465076926E-6
-1.705463220550684E-5
-2.423421815778746E-5
-3.133963332191879E-5
-3.837087769790082E-5
-4.532795128573358E-5
-5.221085408541703E-5
-5.901958609695118E-5
-6.575414732033607E-5
-7.241453775557163E-5
-7.900075740265792E-5
-8.551280626159494E-5
-9.195068433238266E-5
-9.831439161502105E-5
-1.0460392810951016E-4
-1.108726897972172E-4
-1.1716498694120597E-4
-1.2338102879964E-4
-1.2953195042555852E-4
-1.3563285558981545E-4
-1.416837442924108E-4
-1.4768461653334462E-4
-1.5363547231261686E-4
-1.595363116302275E-4
-1.6538713448617656E-4
-1.711879408804641E-4
-1.7693873081309E-4
-1.8263950428405436E-4
-1.8829026129335715E-4
-1.9389100184099835E-4
-1.9944172592697802E-4
-2.0493675143815393E-4
-2.1036929568776425E-4
-2.1579060734140833E-4
-2.2112533165981617E-4
-2.2641286301750132E-4
-2.3165320141446373E-4
-2.368463468507035E-4
-2.4199229932622042E-4
-2.4709105884101464E-4
-2.521426253950861E-4
-2.5714699898843487E-4
-2.6210417962106085E-4
-2.670141672929641E-4
-2.7187696200414464E-4
-2.766925637546025E-4
-2.8146097254433747E-4
-2.861821883733498E-4
-2.908421625813558E-4
-2.954757057095446E-4
-3.000709740042211E-4
-3.0459520487894644E-4
-3.0907597083840437E-4
-3.1351327188259496E-4
-3.179071080115181E-4
-3.2225747922517387E-4
-3.2656438552356224E-4
-3.308278269066833E-4
-3.3504780337453686E-4
-3.392243149271231E-4
-3.43357361564442E-4
-3.4744694328649346E-4
-3.514930600932775E-4
-3.554957119847942E-4
-3.594548989610435E-4
-3.633565625610191E-4
-3.672517401276218E-4
-3.710813969440295E-4
-3.748615501532798E-4
-3.7860201182945296E-4
-3.8230278197254943E-4
-3.8596386058256893E-4
-3.895852476595116E-4
-3.9316694320337735E-4
-3.9670894721416627E-4
-4.0021125969187833E-4
-4.0367388063651343E-4
-4.070968100480718E-4
-4.104800479265532E-4
-4.138235942719576E-4
-4.171274490842854E-4
-4.203870927050071E-4
-4.236075601983443E-4
-4.2681789872385745E-4
-4.2995663195355915E-4
-4.330594527751118E-4
-4.361263611885155E-4
-4.391573571937702E-4
-4.421524407908758E-4
-4.451116119798325E-4
-4.480348707606403E-4
-4.5092221713329884E-4
-4.537736510978085E-4
-4.5658917265416926E-4
-4.593687818023809E-4
-4.621124785424436E-4
-4.6482026287435717E-4
-4.6749213479812195E-4
-4.701195701095963E-4
-4.72729501034532E-4
-4.7530871739489736E-4
-4.778331197673263E-4
-4.8032538981299165E-4
-4.8278552753189377E-4
-4.852135329240323E-4
-4.876094059894073E-4
-4.899731467280188E-4
-4.923047551398669E-4
-4.946042312249516E-4
-4.968715749832727E-4
-4.991067864148303E-4
-5.013098655196244E-4
-5.03480812297655E-4
-5.056196267489222E-4
-5.077263088734259E-4
-5.09794005858286E-4
-5.118576544480794E-4
-5.138706362808412E-4
-5.158474956040446E-4
-5.177960028445458E-4
-5.197161580023446E-4
-5.216079610774412E-4
-5.234714120698355E-4
-5.253065109795275E-4
-5.271132578065171E-4
-5.288916525508046E-4
-5.306416952123897E-4
-5.323633857912727E-4
-5.340567242874533E-4
-5.357217107009317E-4
-5.373583450317078E-4
-5.389641546636224E-4
-5.405457880316815E-4
-5.421196501366959E-4
-5.436403268172371E-4
-5.45136431714973E-4
-5.466079648299033E-4
-5.480549261620284E-4
-5.494773157113482E-4
-5.508751334778624E-4
-5.522483794615712E-4
-5.535970536624747E-4
-5.549211560805727E-4
-5.562206867158653E-4
-5.574956455683527E-4
-5.587460326380346E-4
-5.599718479249111E-4
-5.611730914289822E-4
-5.623464431412117E-4
-5.635103323114418E-4
-5.646515358621203E-4
-5.657544662455652E-4
-5.668366052824664E-4
-5.678979529728241E-4
-5.689385093166379E-4
-5.69958274313908E-4
-5.709572479646345E-4
-5.719354302688173E-4
-5.728928212264566E-4
-5.73829420837552E-4
-5.747452291021037E-4
-5.756402460201119E-4
-5.765144715915763E-4
-5.77367905816497E-4
-5.78200548694874E-4
-5.790126559576277E-4
-5.79823082501136E-4
-5.805977742274024E-4
-5.813497442538061E-4
-5.820847035872662E-4
-5.828026522277824E-4
-5.835035901753546E-4
-5.841875174299833E-4
-5.848544339916679E-4
-5.855043398604087E-4
-5.861372350362057E-4
-5.867531195190589E-4
-5.873519933089682E-4
-5.879338564059337E-4
-5.884987088099554E-4
-5.890465505210334E-4
-5.895769665836471E-4
-5.900982301138794E-4
-5.906140217447163E-4
-5.910950451412248E-4
-5.915628399925195E-4
-5.920174062986001E-4
-5.924587440594671E-4
-5.9288685327512E-4
-5.933017339455591E-4
-5.937033860707844E-4
-5.940918096507959E-4
-5.944670046855932E-4
-5.948289711751769E-4
-5.951777091195466E-4
-5.955132185187025E-4
-5.958354993726443E-4
-5.961445516813725E-4
-5.964423801188556E-4
-5.967389036961803E-4
-5.970203613406449E-4
-5.972801818961451E-4
-5.975305607506225E-4
-5.977714979040767E-4
-5.980029933565077E-4
-5.982250471079157E-4
-5.984376591583007E-4
-5.986408295076623E-4
-5.988345581560011E-4
-5.990188451033167E-4
-5.991936903496092E-4
-5.993590938948789E-4
-5.995150557391252E-4
-5.996615758823486E-4
-5.997986543245487E-4
-5.999344874312665E-4
-6.000711065024785E-4
-6.001846634482214E-4
-6.002899764142461E-4
-6.003896396000144E-4
-6.004836530055267E-4
-6.005720166307828E-4
-6.006547304757827E-4
-6.007317945405263E-4
-6.008032088250138E-4
-6.008689733292452E-4
-6.009290880532206E-4
-6.009835529969393E-4
-6.010323681604022E-4
-6.010755335436088E-4
-6.011130491465593E-4
-6.011476641290252E-4
-6.011897216011306E-4
-6.01221639633993E-4
-6.012415175143237E-4
-6.012596589573361E-4
-6.012760639630303E-4
-6.012907325314059E-4
-6.013036646624633E-4
-6.013148603562024E-4
-6.013243196126233E-4
-6.013320424317257E-4
-6.013380288135099E-4
-6.013422787579756E-4
-6.01344792265123E-4
-6.013455693349524E-4
-6.013446099674632E-4
-6.013419141626558E-4
-6.013444949871276E-4
-2.9037153991389345E-6
-8.711161350664231E-6
-1.484838344450033E-5
-2.1428918070250084E-5
-2.7935281907850548E-5
-3.436747495730171E-5
-4.07254972186036E-5
-4.700934869175619E-5
-5.321902937675948E-5
-5.93545392736135E-5
-6.54158783823182E-5
-7.140304670287363E-5
-7.731604423527975E-5
-8.315487097953662E-5
-8.891952693564416E-5
-9.461459068567112E-5
-1.0033491272461604E-4
-1.0605518485528032E-4
-1.1176883642154677E-4
-1.1739093840785012E-4
-1.2296302393249192E-4
-1.2848509299547204E-4
-1.339571455967907E-4
-1.3937918173644774E-4
-1.447512014144432E-4
-1.500732046307771E-4
-1.553451913854495E-4
-1.605671616784602E-4
-1.6573911550980943E-4
-1.7086105287949697E-4
-1.7593297378752296E-4
-1.8095487823388746E-4
-1.859060645851028E-4
-1.9084473657888514E-4
-1.957834086575739E-4
-2.006872616930967E-4
-2.055194610549751E-4
-2.1030446745613066E-4
-2.1504228089656347E-4
-2.1973290137627358E-4
-2.2437632889526094E-4
-2.289725634535255E-4
-2.335216050510675E-4
-2.3802345368788662E-4
-2.4247810936398303E-4
-2.468855720793567E-4
-2.5124584183400765E-4
-2.555589186279359E-4
-2.598196048234567E-4
-2.640319156214224E-4
-2.6824422710494244E-4
-2.724565392740166E-4
-2.766047435627755E-4
-2.807001369952529E-4
-2.84752065512463E-4
-2.8876052911440566E-4
-2.9272552780108097E-4
-2.966470615724889E-4
-3.0052513042862954E-4
-3.0435973436950247E-4
-3.081508733951083E-4
-3.118985475054466E-4
-3.1560275670051757E-4
-3.192635009803211E-4
-3.228807803448573E-4
-3.264437237886385E-4
-3.299847941970393E-4
-3.335258647209283E-4
-3.370571395214235E-4
-3.4051616588122056E-4
-3.439355007079406E-4
-3.4731514400158394E-4
-3.506550957621502E-4
-3.539553559896397E-4
-3.572159246840524E-4
-3.604368018453882E-4
-3.6361798747364696E-4
-3.6675948156882906E-4
-3.6986128413093414E-4
-3.729233951599624E-4
-3.759458146559137E-4
-3.7892854261878823E-4
-3.8186156339412676E-4
-3.847892611095132E-4
-3.877169589690388E-4
-3.906143360090696E-4
-3.934544524057475E-4
-3.962586563942763E-4
-3.9902694797465626E-4
-4.017593271468872E-4
-4.0445579391096905E-4
-4.071163482669019E-4
-4.0974099021468576E-4
-4.1232971975432056E-4
-4.148825368858065E-4
-4.173994416091434E-4
-4.1988043392433133E-4
-4.223255138313702E-4
-4.2473109308119837E-4
-4.271037574510943E-4
-4.294764219320059E-4
-4.318490865239331E-4
-4.3417086675641284E-4
-4.3645301538633896E-4
-4.387030316895017E-4
-4.4092091566590104E-4
-4.4310666731553684E-4
-4.452602866384092E-4
-4.47381773634518E-4
-4.494711283038633E-4
-4.515283506464451E-4
-4.5355344066226345E-4
-4.555463983513182E-4
-4.575072237136096E-4
-4.5943591674913755E-4
-4.613262359337257E-4
-4.6320228006385266E-4
-4.650783242438385E-4
-4.669466970297395E-4
-4.687601758093351E-4
-4.705453025062287E-4
-4.723020771204197E-4
-4.740304996519086E-4
-4.757305701006951E-4
-4.7740228846677936E-4
-4.790456547501616E-4
-4.806606689508412E-4
-4.822473310688187E-4
-4.838056411040939E-4
-4.8533559905666673E-4
-4.8683720492653744E-4
-4.883104587137057E-4
-4.897514516001382E-4
-4.911893001196605E-4
-4.926271486544738E-4
-4.940420975273434E-4
-4.954157201140742E-4
-4.967647709179994E-4
-4.980892499391194E-4
-4.993891571774338E-4
-5.006644926329431E-4
-5.019152563056465E-4
-5.031414481955449E-4
-5.043430683026378E-4
-5.055201166269254E-4
-5.066725931684075E-4
-5.078004979270843E-4
-5.089038309029557E-4
-5.09980851446673E-4
-5.110389325097048E-4
-5.120970135751749E-4
-5.131550946430836E-4
-5.141762459268867E-4
-5.151709578120812E-4
-5.161448783507321E-4
-5.170980075428392E-4
-5.180303453884026E-4
-5.189418918874224E-4
-5.198326470398986E-4
-5.207026108458309E-4
-5.215517833052196E-4
-5.223801644180646E-4
-5.23187754184366E-4
-5.239745526041237E-4
-5.247405596773377E-4
-5.254841411134621E-4
-5.262208925193996E-4
-5.269576439278283E-4
-5.276888603189086E-4
-5.28382614369278E-4
-5.290593577267034E-4
-5.297190903911851E-4
-5.303618123627229E-4
-5.309875236413167E-4
-5.315962242269668E-4
-5.321879141196732E-4
-5.327625933194357E-4
-5.333202618262544E-4
-5.33860919640129E-4
-5.3438456676106E-4
-5.348912031890471E-4
-5.353808289240903E-4
-5.358556728940076E-4
-5.363295488579222E-4
-5.368034247937325E-4
-5.372617191167832E-4
-5.376946611639501E-4
-5.381143746659037E-4
-5.385208596226432E-4
-5.389141160341686E-4
-5.392941439004803E-4
-5.396609432215781E-4
-5.400145139974619E-4
-5.403548562281321E-4
-5.406819699135881E-4
-5.409958550538304E-4
-5.412965116488587E-4
-5.415839396986733E-4
-5.418582851497091E-4
-5.421278523189927E-4
-5.423974193237791E-4
-5.426669861640675E-4
-5.429129415770777E-4
-5.431459672692923E-4
-5.433695512604839E-4
-5.435836935506523E-4
-5.437883941397976E-4
-5.439836530279199E-4
-5.441694702150191E-4
-5.443458457010952E-4
-5.445127794861481E-4
-5.44670271570178E-4
-5.448183219531849E-4
-5.449569306351686E-4
-5.450860976161291E-4
-5.452093103565615E-4
-5.453335106228055E-4
-5.454577101529161E-4
-5.455764808730141E-4
-5.456760596597662E-4
-5.457699886662622E-4
-5.458582678925021E-4
-5.459408973384856E-4
-5.460178770042134E-4
-5.460892068896843E-4
-5.461548869948996E-4
-5.462149173198586E-4
-5.462692978645613E-4
-5.463180286290076E-4
-5.463611096131981E-4
-5.463985408171321E-4
-5.464303222408102E-4
-5.464678506876342E-4
-5.465060854366098E-4
-5.465437654037273E-4
-5.46563343823222E-4
-5.465811858053985E-4
-5.465972913502565E-4
-5.466116604577962E-4
-5.466242931280176E-4
-5.466351893609208E-4
-5.466443491565055E-4
-5.46651772514772E-4
-5.4665745943572E-4
-5.466614099193499E-4
-5.466636239656614E-4
-5.466641015746546E-4
-5.466628427463294E-4
-5.466646600397322E-4
-5.466682451796032E-4
-2.6133501180051363E-6
-7.840065507262839E-6
-1.3066801100850444E-5
-1.8706764226088096E-5
-2.4614076737157693E-5
-3.0447218460078E-5
-3.620618939484902E-5
-4.1890989541470744E-5
-4.750161889994318E-5
-5.303807747026631E-5
-5.850036525244017E-5
-6.388848224646472E-5
-6.920242845233998E-5
-7.444220387006596E-5
-7.960780849964268E-5
-8.474057663815128E-5
-8.98888736637717E-5
-9.503712078111153E-5
-1.0018531799017071E-4
-1.0530572385328593E-4
-1.1034898973831251E-4
-1.1534223916167752E-4
-1.2028547212338095E-4
-1.251786886234228E-4
-1.3002188866180313E-4
-1.3481507223852185E-4
-1.3955823935357902E-4
-1.4425139000697455E-4
-1.4889452419870853E-4
-1.5348764192878097E-4
-1.5803074319719178E-4
-1.6251060640144687E-4
-1.6695540605449498E-4
-1.714002057924494E-4
-1.7584500561531016E-4
-1.802898055230772E-4
-1.8467560775161022E-4
-1.8900528215695897E-4
-1.9328776360158495E-4
-1.9752305208548814E-4
-2.017111476086687E-4
-2.0585205017112647E-4
-2.0994575977286152E-4
-2.1399227641387384E-4
-2.1799160009416341E-4
-2.2194373081373028E-4
-2.2584866857257437E-4
-2.2970641337069573E-4
-2.3350460373601167E-4
-2.372956828893086E-4
-2.410867627281598E-4
-2.448778432525651E-4
-2.4865979101259525E-4
-2.5236981191809223E-4
-2.560363679083218E-4
-2.59659458983284E-4
-2.6323908514297884E-4
-2.667752463874063E-4
-2.702679427165663E-4
-2.7371717413045884E-4
-2.771229406290842E-4
-2.804852422124419E-4
-2.838040788805325E-4
-2.8707945063335554E-4
-2.903069736694131E-4
-2.934939369196119E-4
-2.9668090028529874E-4
-2.998678637664739E-4
-3.030548273631372E-4
-3.0621232139162527E-4
-3.093105293688923E-4
-3.123690458130824E-4
-3.153878707241956E-4
-3.183670041022319E-4
-3.2130644594719144E-4
-3.24206196259074E-4
-3.270662550378798E-4
-3.298866222836086E-4
-3.3266729799626057E-4
-3.354082821758357E-4
-3.381095748223339E-4
-3.4076281420459956E-4
-3.433977419978964E-4
-3.460326699353324E-4
-3.486675980169073E-4
-3.513025262426214E-4
-3.5388703369151686E-4
-3.564285332551709E-4
-3.58934120410676E-4
-3.6140379515803213E-4
-3.6383755749723923E-4
-3.662354074282973E-4
-3.6859734495120635E-4
-3.709233700659664E-4
-3.732134827725775E-4
-3.754676830710396E-4
-3.7768597096135266E-4
-3.798683464435168E-4
-3.8200808462707713E-4
-3.84143482552949E-4
-3.862788805898365E-4
-3.8841427873773955E-4
-3.905422392114761E-4
-3.926142664256631E-4
-3.946541613130866E-4
-3.966619238737466E-4
-3.986375541076431E-4
-4.0058105201477617E-4
-4.024924175951457E-4
-4.0437165084875173E-4
-4.0621875177559427E-4
-4.080337203756734E-4
-4.0981655664898897E-4
-4.115672605955411E-4
-4.132830419525352E-4
-4.1497148162299597E-4
-4.1665992134331544E-4
-4.1834836111349346E-4
-4.200368009335302E-4
-4.217025255790628E-4
-4.233242717323486E-4
-4.2491766580293196E-4
-4.2648270779081316E-4
-4.2801939769599194E-4
-4.295277355184686E-4
-4.310077212582429E-4
-4.32459354915315E-4
-4.3388263648968476E-4
-4.352775659813523E-4
-4.3664414339031744E-4
-4.3798236871658033E-4
-4.3928788110796015E-4
-4.4058194476365495E-4
-4.418760084346405E-4
-4.431700721209169E-4
-4.4446413582248406E-4
-4.45720722266382E-4
-4.469472907593021E-4
-4.4814928746941704E-4
-4.493267123967264E-4
-4.5047956554123043E-4
-4.516078469029289E-4
-4.527115564818221E-4
-4.5379069427790993E-4
-4.5484526029119225E-4
-4.558752545216694E-4
-4.5688067696934105E-4
-4.5786152763420727E-4
-4.5881617416096133E-4
-4.597684471192333E-4
-4.607207200799436E-4
-4.616729930430923E-4
-4.626197839588711E-4
-4.6352706869235886E-4
-4.6441356207930286E-4
-4.652792641197034E-4
-4.6612417481356006E-4
-4.66948294160873E-4
-4.6775162216164255E-4
-4.6853415881586795E-4
-4.6929590412355006E-4
-4.7003685808468833E-4
-4.7075702069928325E-4
-4.714563919673339E-4
-4.721338303043781E-4
-4.7279690657274514E-4
-4.7345998284360324E-4
-4.741230591169526E-4
-4.747861353927931E-4
-4.754332886993983E-4
-4.7605181608078917E-4
-4.766533327692362E-4
-4.772378387647395E-4
-4.7780533406729887E-4
-4.783558186769144E-4
-4.788892925935861E-4
-4.794057558173141E-4
-4.7990520834809814E-4
-4.803876501859383E-4
-4.8085308133083475E-4
-4.8130150178278736E-4
-4.817325722829003E-4
-4.8215906070860217E-4
-4.825855491061993E-4
-4.8301203747569193E-4
-4.834385258170798E-4
-4.8384033827113043E-4
-4.8422519896895624E-4
-4.845968311215683E-4
-4.849552347289664E-4
-4.8530040979115064E-4
-4.85632356308121E-4
-4.859510742798774E-4
-4.8625656370641994E-4
-4.865488245877487E-4
-4.868278569238635E-4
-4.8709366071476444E-4
-4.8734623596045153E-4
-4.8758921684018434E-4
-4.878318274369295E-4
-4.880744378691773E-4
-4.883170481369272E-4
-4.885556375727091E-4
-4.88771310102661E-4
-4.889775409315899E-4
-4.891743300594957E-4
-4.893616774863784E-4
-4.895395832122379E-4
-4.897080472370745E-4
-4.898670695608878E-4
-4.900166501836782E-4
-4.901567891054454E-4
-4.902874863261896E-4
-4.904087418459106E-4
-4.905212725633673E-4
-4.906330540246436E-4
-4.907448347497865E-4
-4.90856614738796E-4
-4.909683939916721E-4
-4.910682607012087E-4
-4.911564555284323E-4
-4.912390005753996E-4
-4.91315895842111E-4
-4.913871413285661E-4
-4.914527370347648E-4
-4.915126829607073E-4
-4.915669791063939E-4
-4.916156254718242E-4
-4.916586220569981E-4
-4.91695968861916E-4
-4.917276658865778E-4
-4.917596351269526E-4
-4.917940497617063E-4
-4.91828461787552E-4
-4.918628712044899E-4
-4.918883396454018E-4
-4.919058821667423E-4
-4.919216882507642E-4
-4.919357578974681E-4
-4.919480911068534E-4
-4.919586878789205E-4
-4.919675482136693E-4
-4.919746721110998E-4
-4.919800595712119E-4
-4.919837105940057E-4
-4.919856251794812E-4
-4.919858033276384E-4
-4.919872578626073E-4
-4.919904870926818E-4
-4.919937136673524E-4
-2.322984836871339E-6
-6.968969663861444E-6
-1.1614974695181456E-5
-1.6260999930831377E-5
-2.1376017809840215E-5
-2.6610108206229653E-5
-3.177002781446981E-5
-3.685577663456067E-5
-4.186735466650224E-5
-4.6804761910294514E-5
-5.166799836593751E-5
-5.6457064033431184E-5
-6.117195891277559E-5
-6.58126830039707E-5
-7.038197868181174E-5
-7.495830060238826E-5
-7.953457261468419E-5
-8.41107947186995E-5
-8.868696691443423E-5
-9.326308920188837E-5
-9.77907530072773E-5
-1.0225518279102708E-4
-1.0666959611311538E-4
-1.1103399297354202E-4
-1.1534837337230715E-4
-1.1961273730941068E-4
-1.2382708478485263E-4
-1.2799141579863306E-4
-1.321057303507519E-4
-1.3617002844120907E-4
-1.401829211367964E-4
-1.4413384844911027E-4
-1.4808477584633045E-4
-1.52035703328457E-4
-1.5598663089548984E-4
-1.5993755854742893E-4
-1.638813031074069E-4
-1.6775564551694871E-4
-1.715827949657679E-4
-1.753627514538643E-4
-1.7909551498123796E-4
-1.827810855478889E-4
-1.864194631538171E-4
-1.9001064779902252E-4
-1.9355463948350526E-4
-1.9705143820726524E-4
-2.005010439703025E-4
-2.0389377005331223E-4
-2.0726361687638608E-4
-2.1063346438501428E-4
-2.140033125791966E-4
-2.1737316145893314E-4
-2.2074301102422396E-4
-2.2408499560692228E-4
-2.273661790701714E-4
-2.3060389761815308E-4
-2.3379815125086742E-4
-2.3694893996831435E-4
-2.4005626377049386E-4
-2.4312012265740598E-4
-2.461405166290508E-4
-2.4911744568542816E-4
-2.5205090982653814E-4
-2.5494090905238073E-4
-2.577791682953396E-4
-2.6061202450282443E-4
-2.634448808257974E-4
-2.662777372642585E-4
-2.6911059381820796E-4
-2.7194345048764547E-4
-2.7472709781230806E-4
-2.7746448740704495E-4
-2.8016218546870504E-4
-2.828201919972882E-4
-2.8543850699279454E-4
-2.88017130455224E-4
-2.9055606238457654E-4
-2.9305530278085217E-4
-2.9551485164405105E-4
-2.97934708974173E-4
-3.003113126297631E-4
-3.026534705009703E-4
-3.0499562851631643E-4
-3.0733778667580184E-4
-3.0967994497942624E-4
-3.120221034271897E-4
-3.143571966324202E-4
-3.1663599177119946E-4
-3.1887887450182976E-4
-3.21085844824311E-4
-3.2325690273864334E-4
-3.253920482448266E-4
-3.274912813428609E-4
-3.2955460203274616E-4
-3.315820103144825E-4
-3.335735061880697E-4
-3.355290896535079E-4
-3.3744248256248045E-4
-3.393406139333125E-4
-3.4123874541516026E-4
-3.431368770080237E-4
-3.4503500871190267E-4
-3.4693314052679735E-4
-3.4880914293096394E-4
-3.506389164026481E-4
-3.52436557547569E-4
-3.5420206636572625E-4
-3.5593544285711994E-4
-3.576366870217502E-4
-3.5930579885961694E-4
-3.6094277837072036E-4
-3.6254762555506013E-4
-3.6412034041263656E-4
-3.656609229434495E-4
-3.6716525912550895E-4
-3.686660943861621E-4
-3.7016692969667393E-4
-3.716677650570443E-4
-3.7316860046727335E-4
-3.7466943592736094E-4
-3.761329105229057E-4
-3.7756292404988144E-4
-3.78964585494155E-4
-3.8033789485572605E-4
-3.816828521345949E-4
-3.829994573307615E-4
-3.8428771044422605E-4
-3.8554761147498813E-4
-3.8677916042304786E-4
-3.879823572884053E-4
-3.8915507655514755E-4
-3.9030535534701464E-4
-3.914556341541725E-4
-3.9260591297662125E-4
-3.937561918143608E-4
-3.949064706673912E-4
-3.96051438171897E-4
-3.97155524353812E-4
-3.9823503875292165E-4
-3.9928998136922595E-4
-4.0032035220272474E-4
-4.0132615125341824E-4
-4.023073785213063E-4
-4.0326403400638887E-4
-4.041961177086662E-4
-4.0510362962813807E-4
-4.0598656976480456E-4
-4.0684205726521143E-4
-4.076885221162853E-4
-4.0853498696979745E-4
-4.093814518257479E-4
-4.1022791668413657E-4
-4.110743815449636E-4
-4.1190493792329935E-4
-4.127040041585367E-4
-4.134822790472304E-4
-4.1423976258938037E-4
-4.149764547849866E-4
-4.1569235563404934E-4
-4.1638746513656826E-4
-4.170617832925435E-4
-4.1771531010197506E-4
-4.18348045564863E-4
-4.189599896812071E-4
-4.195511246611724E-4
-4.2014052579445984E-4
-4.207299269302386E-4
-4.2131932806850863E-4
-4.2190872920926976E-4
-4.2249813035252244E-4
-4.230620786495235E-4
-4.2360537936193604E-4
-4.241316693814047E-4
-4.246409487079296E-4
-4.2513321734151063E-4
-4.256084752821479E-4
-4.260667225298412E-4
-4.265079590845907E-4
-4.2693218494639634E-4
-4.273394001152582E-4
-4.2772892828055767E-4
-4.2810802916804684E-4
-4.2848713002743133E-4
-4.2886623085871113E-4
-4.29245331661886E-4
-4.2962443243695656E-4
-4.299998713140597E-4
-4.3034987920775815E-4
-4.306866585562427E-4
-4.3101020935951324E-4
-4.3132053161757E-4
-4.3161762533041307E-4
-4.31901490498042E-4
-4.3217212712045715E-4
-4.324295351976583E-4
-4.3267371472964565E-4
-4.329046657164194E-4
-4.3312299725975495E-4
-4.3333865144845927E-4
-4.335543054726661E-4
-4.337699593323753E-4
-4.3398561302758677E-4
-4.3420126655830066E-4
-4.3440658925072837E-4
-4.345954669173947E-4
-4.3477490288303783E-4
-4.3494489714765775E-4
-4.3510544971125486E-4
-4.352565605738286E-4
-4.353982297353794E-4
-4.3553045719590705E-4
-4.356532429554117E-4
-4.357665870138932E-4
-4.3587048937135153E-4
-4.35969736707993E-4
-4.360690986281682E-4
-4.361684598122098E-4
-4.362678202601182E-4
-4.363671799718931E-4
-4.364665389475346E-4
-4.365490401865245E-4
-4.366258510542193E-4
-4.366970121416583E-4
-4.367625234488407E-4
-4.3682238497576715E-4
-4.368765967224373E-4
-4.369251586888514E-4
-4.3696807087500924E-4
-4.3700533328091087E-4
-4.3703694590655634E-4
-4.3706507491908563E-4
-4.370956694396176E-4
-4.3712626135124146E-4
-4.371568506539576E-4
-4.371874373477657E-4
-4.372165049808635E-4
-4.3723374804136776E-4
-4.3724925466455384E-4
-4.3726302485042165E-4
-4.3727505859897104E-4
-4.3728535591020207E-4
-4.3729391678411493E-4
-4.373007412207093E-4
-4.3730582921998535E-4
-4.3730918078194327E-4
-4.373107959065827E-4
-4.3731228845575286E-4
-4.373151617760309E-4
-4.37318032440905E-4
-4.373209004503751E-4
-2.032619555737541E-6
-6.097873820460051E-6
-1.0163148289512469E-5
-1.422844296289479E-5
-1.8293757840607013E-5
-2.285614419575669E-5
-2.741701247746598E-5
-3.190370997102597E-5
-3.631623667643667E-5
-4.065459259369807E-5
-4.4918777722810204E-5
-4.910879206377301E-5
-5.322463561658656E-5
-5.726630838125081E-5
-6.126346567112997E-5
-6.526776257838199E-5
-6.927200957735345E-5
-7.32762066680443E-5
-7.728035385045453E-5
-8.128445112458417E-5
-8.52883137393862E-5
-8.922392388352083E-5
-9.310951756599393E-5
-9.694509478680541E-5
-1.0073065554595538E-4
-1.0446619984344371E-4
-1.081517276792705E-4
-1.117872390534357E-4
-1.1537273396593936E-4