% Model:              Untitled.mph
% Version:            COMSOL 6.3.0.335
% Date:               May 4 2025, 16:57
% Dimension:          2
% Nodes:              144
% Expressions:        1
% Description:        Temperature
% Length unit:        m
% X                       Y                        T (K)
0                         0                        373.15
0.1333333333333333        0                        365.3003373097451
0                         0.125                    373.15
0.1333333333333333        0.125                    365.30033730974503
0                         0.25                     373.15
0.1333333333333333        0.25                     365.30033730974503
0.2666666666666666        0                        357.58362712048023
0.2666666666666666        0.125                    357.5836271204802
0                         0.375                    373.15
0.1333333333333333        0.375                    365.30033730974503
0.2666666666666666        0.25                     357.5836271204802
0.3999999999999999        0                        350.25714765516295
0.3999999999999999        0.125                    350.25714765516295
0                         0.5                      373.15
0.1333333333333333        0.5                      365.30033730974503
0.2666666666666666        0.375                    357.5836271204802
0.3999999999999999        0.25                     350.25714765516295
0.5333333333333334        0                        343.227777164093
0.5333333333333334        0.125                    343.227777164093
0                         0.625                    373.15
0.13333333333333333       0.625                    365.30033730974503
0.2666666666666666        0.5                      357.58362712048023
0.39999999999999997       0.37499999999999994      350.25714765516295
0.5333333333333334        0.25                     343.22777716409297
0.6666666666666667        0                        336.41742960487653
0.6666666666666665        0.125                    336.41742960487653
0                         0.75                     373.15
0.13333333333333333       0.75                     365.3003373097451
0.26666666666666666       0.6249999999999999       357.58362712048023
0.39999999999999986       0.5                      350.257147655163
0.5333333333333334        0.375                    343.227777164093
0.6666666666666667        0.25                     336.41742960487653
0.8                       0                        329.7711905479902
0.8                       0.125                    329.7711905479902
0                         0.875                    373.15
0.13333333333333333       0.875                    365.3003373097451
0.26666666666666666       0.75                     357.58362712048023
0.39999999999999997       0.625                    350.25714765516295
0.5333333333333334        0.5                      343.227777164093
0.6666666666666667        0.375                    336.4174296048766
0.8                       0.25                     329.7711905479902
0.9333333333333333        0                        323.24891899609617
0.9333333333333333        0.125                    323.24891899609617
0                         1                        373.15
0.13333333333333333       1                        365.3003373097451
0.26666666666666666       0.875                    357.58362712048023
0.4                       0.7499999999999999       350.257147655163
0.5333333333333333        0.625                    343.227777164093
0.6666666666666665        0.5                      336.41742960487653
0.8                       0.375                    329.7711905479902
0.9333333333333333        0.25                     323.2489189960961
1.0666666666666667        0                        316.8205688718555
1.0666666666666667        0.125                    316.8205688718555
0.26666666666666666       1                        357.5836271204803
0.4                       0.8749999999999999       350.257147655163
0.5333333333333335        0.75                     343.227777164093
0.6666666666666666        0.625                    336.4174296048766
0.8                       0.5                      329.7711905479902
0.9333333333333333        0.375                    323.24891899609617
1.0666666666666667        0.25                     316.8205688718555
1.2                       0                        310.46342953602743
1.2                       0.125                    310.4634295360275
0.4                       1                        350.257147655163
0.5333333333333333        0.875                    343.227777164093
0.6666666666666666        0.75                     336.4174296048766
0.8                       0.625                    329.7711905479902
0.9333333333333333        0.5                      323.24891899609617
1.0666666666666667        0.375                    316.8205688718555
1.1999999999999995        0.25                     310.46342953602755
1.3333333333333335        0                        304.1604352937407
1.333333333333333         0.125                    304.16043529374076
0.5333333333333333        1                        343.227777164093
0.6666666666666666        0.875                    336.4174296048766
0.8                       0.75                     329.7711905479903
0.9333333333333333        0.625                    323.24891899609617
1.0666666666666667        0.5                      316.8205688718555
1.2                       0.375                    310.4634295360275
1.3333333333333335        0.25                     304.1604352937407
1.4666666666666668        0                        297.89910741291857
1.4666666666666663        0.125                    297.8991074129186
0.6666666666666666        1                        336.4174296048766
0.8                       0.875                    329.7711905479903
0.9333333333333333        0.75                     323.24891899609617
1.0666666666666667        0.625                    316.8205688718555
1.2                       0.5                      310.4634295360275
1.3333333333333335        0.375                    304.1604352937407
1.4666666666666668        0.25                     297.89910741291857
1.6                       0                        291.6708855651085
1.6                       0.125                    291.6708855651085
0.8                       1                        329.7711905479903
0.9333333333333333        0.875                    323.2489189960962
1.0666666666666667        0.75                     316.8205688718555
1.2                       0.625                    310.4634295360275
1.333333333333333         0.5                      304.1604352937407
1.4666666666666668        0.375                    297.8991074129186
1.6                       0.25                     291.6708855651085
1.7333333333333334        0                        285.47070114483864
1.7333333333333334        0.125                    285.47070114483864
0.9333333333333333        1                        323.24891899609617
1.0666666666666667        0.875                    316.8205688718555
1.2                       0.75                     310.4634295360275
1.3333333333333333        0.625                    304.1604352937407
1.4666666666666668        0.5                      297.89910741291857
1.6                       0.375                    291.6708855651085
1.7333333333333334        0.25                     285.47070114483864
1.8666666666666667        0                        279.29669397926125
1.8666666666666667        0.125                    279.29669397926125
1.0666666666666667        1                        316.8205688718555
1.2                       0.875                    310.4634295360275
1.3333333333333333        0.75                     304.16043529374076
1.4666666666666666        0.625                    297.8991074129186
1.6                       0.5                      291.6708855651085
1.7333333333333334        0.375                    285.47070114483864
1.8666666666666667        0.25                     279.29669397926125
2                         0                        273.15
2                         0.125                    273.15
1.2                       1                        310.4634295360275
1.3333333333333333        0.875                    304.16043529374076
1.4666666666666666        0.7499999999999998       297.8991074129186
1.6                       0.625                    291.6708855651085
1.7333333333333334        0.5                      285.47070114483864
1.8666666666666667        0.375                    279.29669397926125
2                         0.25                     273.15
1.3333333333333333        1                        304.16043529374076
1.4666666666666666        0.875                    297.8991074129186
1.6                       0.75                     291.6708855651085
1.7333333333333334        0.625                    285.4707011448386
1.8666666666666667        0.5                      279.29669397926125
2                         0.375                    273.15
1.4666666666666666        1                        297.8991074129186
1.6                       0.8750000000000002       291.6708855651085
1.7333333333333334        0.75                     285.47070114483864
1.8666666666666667        0.6250000000000002       279.29669397926125
2                         0.5                      273.15
1.6                       1                        291.6708855651085
1.7333333333333334        0.875                    285.47070114483864
1.8666666666666667        0.75                     279.29669397926125
2                         0.625                    273.15
1.7333333333333334        1                        285.4707011448386
1.8666666666666667        0.875                    279.29669397926125
2                         0.75                     273.15
1.8666666666666667        1                        279.29669397926125
2                         0.875                    273.15
2                         1                        273.15
