% Model:              Untitled.mph
% Version:            COMSOL 6.3.0.335
% Date:               May 15 2025, 15:26
% Dimension:          2
% Nodes:              179
% Expressions:        306
% Description:        Temperature
% Length unit:        m
% X                       Y                        T (K) @ t=0              T (K) @ t=3600           T (K) @ t=7200           T (K) @ t=10800          T (K) @ t=14400          T (K) @ t=18000          T (K) @ t=21600          T (K) @ t=25200          T (K) @ t=28800          T (K) @ t=32400          T (K) @ t=36000          T (K) @ t=39600          T (K) @ t=43200          T (K) @ t=46800          T (K) @ t=50400          T (K) @ t=54000          T (K) @ t=57600          T (K) @ t=61200          T (K) @ t=64800          T (K) @ t=68400          T (K) @ t=72000          T (K) @ t=75600          T (K) @ t=79200          T (K) @ t=82800          T (K) @ t=86400          T (K) @ t=90000          T (K) @ t=93600          T (K) @ t=97200          T (K) @ t=1.008E5        T (K) @ t=1.044E5        T (K) @ t=1.08E5         T (K) @ t=1.116E5        T (K) @ t=1.152E5        T (K) @ t=1.188E5        T (K) @ t=1.224E5        T (K) @ t=1.26E5         T (K) @ t=1.296E5        T (K) @ t=1.332E5        T (K) @ t=1.368E5        T (K) @ t=1.404E5        T (K) @ t=1.44E5         T (K) @ t=1.476E5        T (K) @ t=1.512E5        T (K) @ t=1.548E5        T (K) @ t=1.584E5        T (K) @ t=1.62E5         T (K) @ t=1.656E5        T (K) @ t=1.692E5        T (K) @ t=1.728E5        T (K) @ t=1.764E5        T (K) @ t=1.8E5          T (K) @ t=1.836E5        T (K) @ t=1.872E5        T (K) @ t=1.908E5        T (K) @ t=1.944E5        T (K) @ t=1.98E5         T (K) @ t=2.016E5        T (K) @ t=2.052E5        T (K) @ t=2.088E5        T (K) @ t=2.124E5        T (K) @ t=2.16E5         T (K) @ t=2.196E5        T (K) @ t=2.232E5        T (K) @ t=2.268E5        T (K) @ t=2.304E5        T (K) @ t=2.34E5         T (K) @ t=2.376E5        T (K) @ t=2.412E5        T (K) @ t=2.448E5        T (K) @ t=2.484E5        T (K) @ t=2.52E5         T (K) @ t=2.556E5        T (K) @ t=2.592E5        T (K) @ t=2.628E5        T (K) @ t=2.664E5        T (K) @ t=2.7E5          T (K) @ t=2.736E5        T (K) @ t=2.772E5        T (K) @ t=2.808E5        T (K) @ t=2.844E5        T (K) @ t=2.88E5         T (K) @ t=2.916E5        T (K) @ t=2.952E5        T (K) @ t=2.988E5        T (K) @ t=3.024E5        T (K) @ t=3.06E5         T (K) @ t=3.096E5        T (K) @ t=3.132E5        T (K) @ t=3.168E5        T (K) @ t=3.204E5        T (K) @ t=3.24E5         T (K) @ t=3.276E5        T (K) @ t=3.312E5        T (K) @ t=3.348E5        T (K) @ t=3.384E5        T (K) @ t=3.42E5         T (K) @ t=3.456E5        T (K) @ t=3.492E5        T (K) @ t=3.528E5        T (K) @ t=3.564E5        T (K) @ t=3.6E5          T (K) @ t=3.636E5        T (K) @ t=3.672E5        T (K) @ t=3.708E5        T (K) @ t=3.744E5        T (K) @ t=3.78E5         T (K) @ t=3.816E5        T (K) @ t=3.852E5        T (K) @ t=3.888E5        T (K) @ t=3.924E5        T (K) @ t=3.96E5         T (K) @ t=3.996E5        T (K) @ t=4.032E5        T (K) @ t=4.068E5        T (K) @ t=4.104E5        T (K) @ t=4.14E5         T (K) @ t=4.176E5        T (K) @ t=4.212E5        T (K) @ t=4.248E5        T (K) @ t=4.284E5        T (K) @ t=4.32E5         T (K) @ t=4.356E5        T (K) @ t=4.392E5        T (K) @ t=4.428E5        T (K) @ t=4.464E5        T (K) @ t=4.5E5          T (K) @ t=4.536E5        T (K) @ t=4.572E5        T (K) @ t=4.608E5        T (K) @ t=4.644E5        T (K) @ t=4.68E5         T (K) @ t=4.716E5        T (K) @ t=4.752E5        T (K) @ t=4.788E5        T (K) @ t=4.824E5        T (K) @ t=4.86E5         T (K) @ t=4.896E5        T (K) @ t=4.932E5        T (K) @ t=4.968E5        T (K) @ t=5.004E5        T (K) @ t=5.04E5         T (K) @ t=5.076E5        T (K) @ t=5.112E5        T (K) @ t=5.148E5        T (K) @ t=5.184E5        T (K) @ t=5.22E5         T (K) @ t=5.256E5        T (K) @ t=5.292E5        T (K) @ t=5.328E5        T (K) @ t=5.364E5        T (K) @ t=5.4E5          T (K) @ t=5.436E5        T (K) @ t=5.472E5        T (K) @ t=5.508E5        T (K) @ t=5.544E5        T (K) @ t=5.58E5         T (K) @ t=5.616E5        T (K) @ t=5.652E5        T (K) @ t=5.688E5        T (K) @ t=5.724E5        T (K) @ t=5.76E5         T (K) @ t=5.796E5        T (K) @ t=5.832E5        T (K) @ t=5.868E5        T (K) @ t=5.904E5        T (K) @ t=5.94E5         T (K) @ t=5.976E5        T (K) @ t=6.012E5        T (K) @ t=6.048E5        T (K) @ t=6.084E5        T (K) @ t=6.12E5         T (K) @ t=6.156E5        T (K) @ t=6.192E5        T (K) @ t=6.228E5        T (K) @ t=6.264E5        T (K) @ t=6.3E5          T (K) @ t=6.336E5        T (K) @ t=6.372E5        T (K) @ t=6.408E5        T (K) @ t=6.444E5        T (K) @ t=6.48E5         T (K) @ t=6.516E5        T (K) @ t=6.552E5        T (K) @ t=6.588E5        T (K) @ t=6.624E5        T (K) @ t=6.66E5         T (K) @ t=6.696E5        T (K) @ t=6.732E5        T (K) @ t=6.768E5        T (K) @ t=6.804E5        T (K) @ t=6.84E5         T (K) @ t=6.876E5        T (K) @ t=6.912E5        T (K) @ t=6.948E5        T (K) @ t=6.984E5        T (K) @ t=7.02E5         T (K) @ t=7.056E5        T (K) @ t=7.092E5        T (K) @ t=7.128E5        T (K) @ t=7.164E5        T (K) @ t=7.2E5          T (K) @ t=7.236E5        T (K) @ t=7.272E5        T (K) @ t=7.308E5        T (K) @ t=7.344E5        T (K) @ t=7.38E5         T (K) @ t=7.416E5        T (K) @ t=7.452E5        T (K) @ t=7.488E5        T (K) @ t=7.524E5        T (K) @ t=7.56E5         T (K) @ t=7.596E5        T (K) @ t=7.632E5        T (K) @ t=7.668E5        T (K) @ t=7.704E5        T (K) @ t=7.74E5         T (K) @ t=7.776E5        T (K) @ t=7.812E5        T (K) @ t=7.848E5        T (K) @ t=7.884E5        T (K) @ t=7.92E5         T (K) @ t=7.956E5        T (K) @ t=7.992E5        T (K) @ t=8.028E5        T (K) @ t=8.064E5        T (K) @ t=8.1E5          T (K) @ t=8.136E5        T (K) @ t=8.172E5        T (K) @ t=8.208E5        T (K) @ t=8.244E5        T (K) @ t=8.28E5         T (K) @ t=8.316E5        T (K) @ t=8.352E5        T (K) @ t=8.388E5        T (K) @ t=8.424E5        T (K) @ t=8.46E5         T (K) @ t=8.496E5        T (K) @ t=8.532E5        T (K) @ t=8.568E5        T (K) @ t=8.604E5        T (K) @ t=8.64E5         T (K) @ t=8.676E5        T (K) @ t=8.712E5        T (K) @ t=8.748E5        T (K) @ t=8.784E5        T (K) @ t=8.82E5         T (K) @ t=8.856E5        T (K) @ t=8.892E5        T (K) @ t=8.928E5        T (K) @ t=8.964E5        T (K) @ t=9E5            T (K) @ t=9.036E5        T (K) @ t=9.072E5        T (K) @ t=9.108E5        T (K) @ t=9.144E5        T (K) @ t=9.18E5         T (K) @ t=9.216E5        T (K) @ t=9.252E5        T (K) @ t=9.288E5        T (K) @ t=9.324E5        T (K) @ t=9.36E5         T (K) @ t=9.396E5        T (K) @ t=9.432E5        T (K) @ t=9.468E5        T (K) @ t=9.504E5        T (K) @ t=9.54E5         T (K) @ t=9.576E5        T (K) @ t=9.612E5        T (K) @ t=9.648E5        T (K) @ t=9.684E5        T (K) @ t=9.72E5         T (K) @ t=9.756E5        T (K) @ t=9.792E5        T (K) @ t=9.828E5        T (K) @ t=9.864E5        T (K) @ t=9.9E5          T (K) @ t=9.936E5        T (K) @ t=9.972E5        T (K) @ t=1.0008E6       T (K) @ t=1.0044E6       T (K) @ t=1.008E6        T (K) @ t=1.0116E6       T (K) @ t=1.0152E6       T (K) @ t=1.0188E6       T (K) @ t=1.0224E6       T (K) @ t=1.026E6        T (K) @ t=1.0296E6       T (K) @ t=1.0332E6       T (K) @ t=1.0368E6       T (K) @ t=1.0404E6       T (K) @ t=1.044E6        T (K) @ t=1.0476E6       T (K) @ t=1.0512E6       T (K) @ t=1.0548E6       T (K) @ t=1.0584E6       T (K) @ t=1.062E6        T (K) @ t=1.0656E6       T (K) @ t=1.0692E6       T (K) @ t=1.0728E6       T (K) @ t=1.0764E6       T (K) @ t=1.08E6         T (K) @ t=1.0836E6       T (K) @ t=1.0872E6       T (K) @ t=1.0908E6       T (K) @ t=1.0944E6       T (K) @ t=1.098E6
0.08567404781984342       0.08559818721161772      273.12067277919164       276.39473377539315       289.522405985886         298.08557589860465       304.7776281986148        309.7027086022587        313.7289326180064        317.480171327223         320.2818133084631        323.0834552897031        324.93136117420715       326.63434260012866       328.33732402605017       330.0403054519716        331.65428985405583       332.7836918566814        333.9130938593069        335.0424958619325        336.17189786455805       337.0930241938311        337.7514611151815        338.40989803653184       339.0683349578822        339.72677187923256       340.3852088005829        341.0436457219333        341.70208264328363       342.360519564634         343.0151424150139        343.44063716791527       343.86613192081666       344.291626673718         344.71712142661937       345.1426161795207        345.5681109324221        345.9936056853234        346.4191004382248        346.84459519112613       347.162305311609         347.4052736532827        347.6482419949564        347.8912103366301        348.1341786783038        348.37714701997743       348.62011536165113       348.86308370332483       349.10605204499853       349.34902038667224       349.5919887283459        349.8349570700196        350.0779254116933        350.320893753367         350.5638620950407        350.80683043671434       351.04979877838804       351.29276712006174       351.53573546173544       351.7137555101702        351.86881319544176       352.0238708807134        352.178928565985         352.33398625125653       352.48904393652816       352.6441016217998        352.79915930707136       352.954216992343         353.1092746776146        353.26433236288614       353.41939004815777       353.5744477334294        353.729505418701         353.8845631039726        354.0396207892442        354.1946784745158        354.34973615978737       354.504793845059         354.618199469448         354.7263031650548        354.83440686066166       354.9425105562685        355.05061425187534       355.1587179474822        355.2668216430891        355.3749253386959        355.4830290343028        355.5911327299096        355.69923642551646       355.80734012112333       355.91544381673015       356.023547512337         356.13165120794383       356.2397549035507        356.3478585991575        356.4559622947644        356.56275576425145       356.6338119069222        356.70486804959296       356.77592419226363       356.8469803349344        356.9180364776052        356.9890926202759        357.0601487629467        357.1312049056174        357.20226104828816       357.27331719095895       357.3443733336297        357.41542947630046       357.4864856189712        357.5575417616419        357.62859790431264       357.6996540469834        357.7707101896542        357.84176633232494       357.91282247499566       357.9838786176664        358.0549347603372        358.1259909030079        358.1970470456787        358.26810318834947       358.33915933102014       358.4102154736909        358.48127161636165       358.55232775903244       358.6233839017032        358.6944400443739        358.7543479220282        358.8045804343444        358.8548129466606        358.90504545897676       358.9552779712929        359.0055104836091        359.05574299592524       359.10597550824144       359.15620802055764       359.2064405328738        359.2566730451899        359.3069055575061        359.3571380698223        359.40737058213847       359.4576030944546        359.50783560677087       359.558068119087         359.60830063140315       359.65853314371935       359.70876565603555       359.7589981683517        359.80923068066784       359.85946319298404       359.90969570530024       359.9599282176164        360.0101607299326        360.0603932422487        360.1106257545649        360.1608582668811        360.21109077919726       360.2608769714921        360.29848947542536       360.33610197935866       360.3737144832919        360.4113269872252        360.44893949115857       360.4865519950918        360.5241644990251        360.56177700295837       360.59938950689167       360.637002010825         360.6746145147582        360.7122270186915        360.7498395226248        360.78745202655807       360.8250645304914        360.8626770344246        360.9002895383579        360.9379020422913        360.97551454622453       361.01312705015783       361.0507395540911        361.0883520580244        361.1259645619577        361.16357706589093       361.20118956982424       361.2388020737575        361.2764145776908        361.3140270816241        361.35163958555734       361.38925208949064       361.4224597870774        361.45184463773836       361.4812294883994        361.5106143390603        361.53999918972124       361.5693840403822        361.59876889104316       361.6281537417041        361.65753859236503       361.686923443026         361.71630829368695       361.74569314434797       361.7750779950089        361.8044628456699        361.8338476963308        361.86323254699175       361.8926173976527        361.9220022483137        361.95138709897464       361.9807719496356        362.01015680029656       362.0395416509575        362.0689265016185        362.09831135227944       362.1276962029404        362.1570810536013        362.18646590426226       362.2158507549232        362.2452356055842        362.2746204562452        362.30380458908          362.32751400389515       362.35122341871016       362.3749328335253        362.3986422483403        362.42235166315544       362.44606107797046       362.4697704927855        362.49347990760066       362.5171893224157        362.5408987372308        362.5646081520458        362.58831756686095       362.61202698167597       362.6357363964911        362.65944581130617       362.68315522612124       362.7068646409363        362.7305740557514        362.75428347056646       362.77799288538154       362.8017023001966        362.8254117150117        362.84912112982676       362.87283054464183       362.8965399594569        362.920249374272         362.94395878908705       362.9676682039021        362.99137761871725       363.01508703353227       363.037968127952         363.06005379650213       363.08203975920225       363.10392601605247       363.1257125670527        363.1473994122031        363.1689865515034        363.1904739849538        363.2118617125543        363.23314973430485       363.2543380502055        363.2754266602561        363.2964155644569        363.3173047628077        363.33809425530853       363.3587840419594        363.37937412276034       363.3998644977114        363.4202551668124        363.4405461300636        363.4607373874648        363.480828939016         363.50082078471735       363.5207129245688        363.54050535857016       363.5601980867217        363.5797911090232        363.59928442547476       363.61867803607646       363.6379719408282        363.657163981923         363.67619539269543       363.69512310136724       363.71394710793845       363.732667412409         363.75128401477906       363.7697969150485        363.7882061132173        363.80651160928556       363.82471340325316       363.8428114951202        363.86080588488664       363.8786965725525        363.8964835581178        363.9141668415824        363.9317464229465        363.94922230221          363.9665944793729        363.98386295443515       364.00102772739683       364.01808879825796       364.03504616701844       364.05189983367836       364.06864979823763       364.08529606069635       364.10183862105447       364.118277479312         364.1346126354689        364.15084408952526
0                         0.12499999999999999      373.1499999999999        373.1499999999999        373.1499999999999        373.1499999999999        373.1499999999999        373.1499999999999        373.1499999999999        373.1499999999999        373.1499999999999        373.1499999999999        373.1499999999999        373.1499999999999        373.1499999999999        373.1499999999999        373.1499999999999        373.1499999999999        373.1499999999999        373.1499999999999        373.1499999999999        373.1499999999999        373.1499999999999        373.1499999999999        373.1499999999999        373.1499999999999        373.1499999999999        373.1499999999999        373.1499999999999        373.1499999999999        373.1499999999999        373.1499999999999        373.1499999999999        373.1499999999999        373.1499999999999        373.1499999999999        373.1499999999999        373.1499999999999        373.1499999999999        373.1499999999999        373.1499999999999        373.1499999999999        373.1499999999999        373.1499999999999        373.1499999999999        373.1499999999999        373.1499999999999        373.1499999999999        373.1499999999999        373.1499999999999        373.1499999999999        373.1499999999999        373.1499999999999        373.1499999999999        373.1499999999999        373.1499999999999        373.1499999999999        373.1499999999999        373.1499999999999        373.1499999999999        373.1499999999999        373.1499999999999        373.1499999999999        373.1499999999999        373.1499999999999        373.1499999999999        373.1499999999999        373.1499999999999        373.1499999999999        373.1499999999999        373.1499999999999        373.1499999999999        373.1499999999999        373.1499999999999        373.1499999999999        373.1499999999999        373.1499999999999        373.1499999999999        373.1499999999999        373.1499999999999        373.1499999999999        373.1499999999999        373.1499999999999        373.1499999999999        373.1499999999999        373.1499999999999        373.1499999999999        373.1499999999999        373.1499999999999        373.1499999999999        373.1499999999999        373.1499999999999        373.1499999999999        373.1499999999999        373.1499999999999        373.1499999999999        373.1499999999999        373.1499999999999        373.1499999999999        373.1499999999999        373.1499999999999        373.1499999999999        373.1499999999999        373.1499999999999        373.1499999999999        373.1499999999999        373.1499999999999        373.1499999999999        373.1499999999999        373.1499999999999        373.1499999999999        373.1499999999999        373.1499999999999        373.1499999999999        373.1499999999999        373.1499999999999        373.1499999999999        373.1499999999999        373.1499999999999        373.1499999999999        373.1499999999999        373.1499999999999        373.1499999999999        373.1499999999999        373.1499999999999        373.1499999999999        373.1499999999999        373.1499999999999        373.1499999999999        373.1499999999999        373.1499999999999        373.1499999999999        373.1499999999999        373.1499999999999        373.1499999999999        373.1499999999999        373.1499999999999        373.1499999999999        373.1499999999999        373.1499999999999        373.1499999999999        373.1499999999999        373.1499999999999        373.1499999999999        373.1499999999999        373.1499999999999        373.1499999999999        373.1499999999999        373.1499999999999        373.1499999999999        373.1499999999999        373.1499999999999        373.1499999999999        373.1499999999999        373.1499999999999        373.1499999999999        373.1499999999999        373.1499999999999        373.1499999999999        373.1499999999999        373.1499999999999        373.1499999999999        373.1499999999999        373.1499999999999        373.1499999999999        373.1499999999999        373.1499999999999        373.1499999999999        373.1499999999999        373.1499999999999        373.1499999999999        373.1499999999999        373.1499999999999        373.1499999999999        373.1499999999999        373.1499999999999        373.1499999999999        373.1499999999999        373.1499999999999        373.1499999999999        373.1499999999999        373.1499999999999        373.1499999999999        373.1499999999999        373.1499999999999        373.1499999999999        373.1499999999999        373.1499999999999        373.1499999999999        373.1499999999999        373.1499999999999        373.1499999999999        373.1499999999999        373.1499999999999        373.1499999999999        373.1499999999999        373.1499999999999        373.1499999999999        373.1499999999999        373.1499999999999        373.1499999999999        373.1499999999999        373.1499999999999        373.1499999999999        373.1499999999999        373.1499999999999        373.1499999999999        373.1499999999999        373.1499999999999        373.1499999999999        373.1499999999999        373.1499999999999        373.1499999999999        373.1499999999999        373.1499999999999        373.1499999999999        373.1499999999999        373.1499999999999        373.1499999999999        373.1499999999999        373.1499999999999        373.1499999999999        373.1499999999999        373.1499999999999        373.1499999999999        373.1499999999999        373.1499999999999        373.1499999999999        373.1499999999999        373.1499999999999        373.1499999999999        373.1499999999999        373.1499999999999        373.1499999999999        373.1499999999999        373.1499999999999        373.1499999999999        373.1499999999999        373.1499999999999        373.1499999999999        373.1499999999999        373.1499999999999        373.1499999999999        373.1499999999999        373.1499999999999        373.1499999999999        373.1499999999999        373.1499999999999        373.1499999999999        373.1499999999999        373.1499999999999        373.1499999999999        373.1499999999999        373.1499999999999        373.1499999999999        373.1499999999999        373.1499999999999        373.1499999999999        373.1499999999999        373.1499999999999        373.1499999999999        373.1499999999999        373.1499999999999        373.1499999999999        373.1499999999999        373.1499999999999        373.1499999999999        373.1499999999999        373.1499999999999        373.1499999999999        373.1499999999999        373.1499999999999        373.1499999999999        373.1499999999999        373.1499999999999        373.1499999999999        373.1499999999999        373.1499999999999        373.1499999999999        373.1499999999999        373.1499999999999        373.1499999999999        373.1499999999999        373.1499999999999        373.1499999999999        373.1499999999999        373.1499999999999        373.1499999999999        373.1499999999999        373.1499999999999        373.1499999999999        373.1499999999999        373.1499999999999        373.1499999999999        373.1499999999999        373.1499999999999        373.1499999999999        373.1499999999999        373.1499999999999        373.1499999999999        373.1499999999999        373.1499999999999        373.1499999999999        373.1499999999999        373.1499999999999        373.1499999999999        373.1499999999999        373.1499999999999